# vtk DataFile Version 2.0

ASCII
DATASET RECTILINEAR_GRID
DIMENSIONS 40 38 26
X_COORDINATES 40 double
0.0 2.0 4.0 6.0 8.0 10.0 12.0 14.0 16.0 18.0 20.0 22.0 24.0 26.0 28.0 30.0 32.0 34.0 36.0 38.0 40.0 42.0 44.0 46.0 48.0 50.0 52.0 54.0 56.0 58.0 60.0 62.0 64.0 66.0 68.0 70.0 72.0 74.0 76.0 78.0
Y_COORDINATES 38 double
0.0 1.97297297297 3.94594594595 5.91891891892 7.89189189189 9.86486486486 11.8378378378 13.8108108108 15.7837837838 17.7567567568 19.7297297297 21.7027027027 23.6756756757 25.6486486486 27.6216216216 29.5945945946 31.5675675676 33.5405405405 35.5135135135 37.4864864865 39.4594594595 41.4324324324 43.4054054054 45.3783783784 47.3513513514 49.3243243243 51.2972972973 53.2702702703 55.2432432432 57.2162162162 59.1891891892 61.1621621622 63.1351351351 65.1081081081 67.0810810811 69.0540540541 71.027027027 73.0
Z_COORDINATES 26 double
0.0 2.0 4.0 6.0 8.0 10.0 12.0 14.0 16.0 18.0 20.0 22.0 24.0 26.0 28.0 30.0 32.0 34.0 36.0 38.0 40.0 42.0 44.0 46.0 48.0 50.0
CELL_DATA 36075
VECTORS Magnetisation double
1.52855685736e-17 7.24066692797e-17 1.0
3.01803211954e-17 4.9889762999e-17 1.0
4.00953836936e-17 5.79230709643e-17 1.0
-2.90274965378e-18 9.34046222015e-17 1.0
5.62050226982e-18 1.00629146509e-16 1.0
2.26337828408e-17 8.4140640665e-17 1.0
4.2852750606e-17 8.37497372666e-17 1.0
3.77982856459e-17 8.14305877584e-17 1.0
4.5489551825e-17 7.76522917939e-17 1.0
1.19899016232e-17 5.70281255115e-17 1.0
3.1460710562e-17 4.42642099935e-17 1.0
4.7229167026e-17 4.8738269439e-17 1.0
3.04572013087e-17 5.3425686192e-17 1.0
1.04619337648e-17 7.99348713885e-17 1.0
2.66303284757e-17 7.19576150142e-17 1.0
1.35203946783e-17 4.92492850444e-17 1.0
-1.18341900996e-18 5.5001216018e-17 1.0
1.23007557068e-17 6.60430700616e-17 1.0
4.70891809738e-18 5.17002738249e-17 1.0
-1.71428272391e-17 4.82554212974e-17 1.0
-3.91211399912e-17 5.51790415837e-17 1.0
-3.90200072543e-17 3.60362738261e-17 1.0
-3.51563836483e-17 3.87722728414e-17 1.0
-1.66307202369e-17 6.08789886861e-17 1.0
1.57493890209e-18 4.32751994547e-17 1.0
1.12026746138e-18 3.31446031034e-17 1.0
2.62057419927e-18 4.61213863779e-17 1.0
4.6381398113e-18 5.94521043618e-17 1.0
1.10229266363e-17 5.76364716563e-17 1.0
1.52528066957e-17 3.28363127126e-17 1.0
2.98624366942e-17 4.57541319375e-17 1.0
8.66705935959e-18 5.72665392023e-17 1.0
2.09770875646e-17 5.95961623248e-17 1.0
9.69406600316e-18 5.37258747839e-17 1.0
8.18152212694e-18 4.68784470873e-17 1.0
1.30167099383e-17 7.62351744544e-17 1.0
3.26065901263e-17 6.72617909143e-17 1.0
3.45867404253e-17 6.78736195801e-17 1.0
4.07337501393e-18 8.8851168187e-17 1.0
3.51770453894e-17 7.13867204643e-17 1.0
1.59975354406e-17 5.9018710045e-17 1.0
-3.31565977285e-18 8.58382013089e-17 1.0
-1.26351940197e-17 1.10733054324e-16 1.0
1.75884690748e-17 9.87938752281e-17 1.0
2.3293117251e-17 8.73634388008e-17 1.0
4.11943529593e-17 7.4399739098e-17 1.0
2.87137237147e-17 5.90710834331e-17 1.0
2.93862768172e-17 7.6038128217e-17 1.0
2.68480549813e-17 6.08399863798e-17 1.0
2.49390436745e-17 2.33124945509e-17 1.0
2.56731578614e-17 3.72705172719e-17 1.0
2.17949563621e-17 5.00791440496e-17 1.0
2.99565823135e-17 5.92939200834e-17 1.0
4.30466358801e-17 5.34647696994e-17 1.0
1.70667679697e-17 4.26643755986e-17 1.0
5.23169587396e-18 5.10001095021e-17 1.0
3.24688470759e-18 4.88865449216e-17 1.0
1.98727757762e-17 5.27554958698e-17 1.0
-1.80579544674e-17 5.50662899405e-17 1.0
-2.23338408146e-17 4.9829453281e-17 1.0
-2.15687816654e-17 4.81287372866e-17 1.0
-2.08549956886e-17 4.11283184686e-17 1.0
-1.71605312386e-18 4.09676077208e-17 1.0
3.95425968415e-18 5.34959932041e-17 1.0
8.48511454805e-19 5.90555328397e-17 1.0
4.83243813354e-19 6.36505999733e-17 1.0
8.99047353084e-18 5.1634746184e-17 1.0
2.37261597166e-17 4.5366580705e-17 1.0
1.04588714636e-17 4.28887371829e-17 1.0
3.39029221823e-18 6.03364950971e-17 1.0
1.68249819211e-17 4.98229282654e-17 1.0
2.21962281458e-17 4.12243093008e-17 1.0
3.13722265104e-17 7.13648472413e-17 1.0
1.72408068761e-17 6.47469253954e-17 1.0
2.6191585328e-17 5.98092999691e-17 1.0
4.17110530074e-17 4.63255033478e-17 1.0
3.48147235366e-17 6.67492347433e-17 1.0
2.69189012067e-17 8.67450320823e-17 1.0
1.85368992885e-17 7.72404505434e-17 1.0
8.75519747005e-18 8.23182276498e-17 1.0
-7.56549426011e-18 8.22534208457e-17 1.0
1.01992200524e-17 9.25093408084e-17 1.0
1.82537597139e-17 1.05284724872e-16 1.0
1.65897580623e-17 8.2674146324e-17 1.0
2.32289606422e-17 6.75152473643e-17 1.0
1.86558063256e-17 7.05079674375e-17 1.0
2.33287780389e-17 6.43744568452e-17 1.0
2.92726231234e-17 4.02430112387e-17 1.0
2.59919008735e-17 2.56157813108e-17 1.0
-7.58405066612e-20 3.96043167092e-17 1.0
2.02310855235e-17 4.10031492883e-17 1.0
4.10146490701e-17 5.20087098397e-17 1.0
3.24944508254e-17 4.44965262411e-17 1.0
2.06577682174e-17 3.38894808226e-17 1.0
4.55139824853e-18 4.34280741464e-17 1.0
5.62392137209e-18 3.51799166191e-17 1.0
1.7178829236e-17 5.06197366632e-17 1.0
2.40685765823e-18 5.72386176588e-17 1.0
5.1601856909e-18 4.76658099751e-17 1.0
3.43493746288e-18 5.03883626922e-17 1.0
1.57054258894e-17 4.28182344564e-17 1.0
-5.84543738472e-18 5.39453910862e-17 1.0
-1.15071947944e-17 6.36871508394e-17 1.0
5.37606924095e-18 6.66740904556e-17 1.0
1.44467717855e-17 6.46845129407e-17 1.0
2.12211843742e-17 5.59983386149e-17 1.0
1.75416523079e-17 6.65295911143e-17 1.0
1.86183774216e-17 6.43824645589e-17 1.0
2.12561915733e-17 4.56110843865e-17 1.0
3.06086788644e-17 4.02090630089e-17 1.0
2.8278318185e-17 4.5327936346e-17 1.0
3.90357331287e-17 5.9435441656e-17 1.0
3.7561244736e-17 5.22710691143e-17 1.0
3.88130452667e-17 4.28432495376e-17 1.0
3.07874471315e-17 4.99685160396e-17 1.0
1.76696642782e-17 6.82889526866e-17 1.0
1.7329099659e-17 7.03435318263e-17 1.0
1.39072641533e-17 6.40383944561e-17 1.0
1.58420572096e-17 9.17395168585e-17 1.0
9.00024880217e-18 1.03967943858e-16 1.0
4.95215399933e-18 9.59429004932e-17 1.0
-9.0952638281e-19 9.49789105762e-17 1.0
-5.79537590877e-18 7.68420797587e-17 1.0
-7.37851631599e-18 5.54261379086e-17 1.0
1.24470392874e-17 4.86211995638e-17 1.0
2.2167407055e-17 6.27254680701e-17 1.0
3.54272077497e-17 4.29410359636e-17 1.0
2.3627663685e-17 2.99948309261e-17 1.0
3.19130521391e-17 3.69972515663e-17 1.0
1.0932561504e-18 2.3593742586e-17 1.0
8.30754109062e-18 3.84001426026e-17 1.0
2.72003394321e-17 4.06884893627e-17 1.0
1.20991495372e-17 4.38564656514e-17 1.0
-9.94879748751e-18 4.4331740027e-17 1.0
-1.86468999023e-17 4.13556452266e-17 1.0
-3.72968066048e-17 4.82200693911e-17 1.0
-1.66527786308e-17 3.88179941508e-17 1.0
-1.23549950683e-17 4.10804216333e-17 1.0
4.04361992704e-18 5.25833617196e-17 1.0
-5.67987102346e-18 7.03045613033e-17 1.0
-1.57459152089e-17 7.76512852467e-17 1.0
-1.89047407939e-17 6.01559778233e-17 1.0
3.17754122764e-18 5.86051534722e-17 1.0
2.16373153819e-17 6.0165803813e-17 1.0
1.41614092384e-17 5.37643267643e-17 1.0
2.2735831836e-17 5.46979188919e-17 1.0
3.37616588795e-17 5.47948828297e-17 1.0
3.47133159699e-17 5.61508187092e-17 1.0
3.4957062594e-17 4.80909694669e-17 1.0
3.76393835828e-17 2.80293886802e-17 1.0
3.04731863374e-17 3.44104611041e-17 1.0
3.72959587567e-17 4.49767158904e-17 1.0
4.41873799359e-17 5.23940279076e-17 1.0
2.07351211227e-17 5.75338678449e-17 1.0
6.89949756712e-19 5.84880585545e-17 1.0
1.16580493359e-17 5.74287974118e-17 1.0
1.11168606151e-17 6.64202679631e-17 1.0
1.27286721769e-17 1.06843565022e-16 1.0
2.20207370464e-17 1.12482679568e-16 1.0
1.47876064025e-17 9.71329399027e-17 1.0
1.28797231451e-17 9.56782277525e-17 1.0
-1.18095109913e-17 7.46800459528e-17 1.0
-2.62044563879e-18 4.30702848699e-17 1.0
-1.74841882995e-18 3.56394632696e-17 1.0
7.15519735885e-18 4.38793289058e-17 1.0
4.13136031484e-17 3.87543097921e-17 1.0
2.4578171165e-17 2.45033512897e-17 1.0
4.11525363951e-17 4.28257713906e-17 1.0
5.72922087807e-18 3.6541646731e-17 1.0
1.07738251196e-17 1.85681784552e-17 1.0
2.37082089205e-17 3.20614837919e-17 1.0
1.23449852505e-17 4.88948989929e-17 1.0
1.36914809482e-17 4.51458164154e-17 1.0
-2.25681716122e-17 4.48071421419e-17 1.0
-5.05700398241e-17 4.52080591635e-17 1.0
-3.09674169518e-17 3.76180749632e-17 1.0
-1.95186516031e-17 3.73392601321e-17 1.0
-8.04071823876e-18 4.36429955255e-17 1.0
-2.93057376511e-17 6.55558211296e-17 1.0
-9.81850528484e-18 7.39648655559e-17 1.0
5.81994284877e-18 5.72466263452e-17 1.0
2.67022868783e-17 5.83520526354e-17 1.0
3.97297284912e-17 3.46585220564e-17 1.0
4.98932322443e-17 3.46994660511e-17 1.0
4.7678868185e-17 4.9847937369e-17 1.0
2.56999982028e-17 4.50850476034e-17 1.0
1.54200764648e-17 4.3007674297e-17 1.0
3.4537718545e-17 2.7852972058e-17 1.0
2.51294368207e-17 3.38494501541e-17 1.0
2.8312218754e-17 2.26918327517e-17 1.0
2.63648250004e-17 8.77501714321e-18 1.0
3.18786025057e-17 3.69820654598e-17 1.0
1.49768125004e-17 6.67789451582e-17 1.0
4.53897702554e-18 5.54910841963e-17 1.0
6.12338453227e-18 4.47230675058e-17 1.0
2.89231203647e-18 5.4697435029e-17 1.0
1.63031662189e-17 8.03547231209e-17 1.0
1.98895089246e-17 9.75000342282e-17 1.0
2.16276728599e-17 9.3214490051e-17 1.0
9.38909352095e-18 9.48936085747e-17 1.0
1.95318152998e-17 7.76165192218e-17 1.0
1.70435785393e-17 5.09625471154e-17 1.0
3.57452818363e-18 3.87834257912e-17 1.0
1.87885767106e-17 1.55666791878e-17 1.0
3.40413213904e-17 1.59967324598e-17 1.0
2.45657695984e-17 1.12544533022e-17 1.0
-7.83701473848e-18 2.93983677415e-17 1.0
2.32006818307e-17 4.56635938604e-17 1.0
4.18003003068e-17 3.34806485326e-17 1.0
7.03756091634e-17 3.6409208291e-17 1.0
5.5036117175e-17 4.19128444835e-17 1.0
3.84321037485e-17 2.64367197793e-17 1.0
1.45324324585e-17 1.762057584e-17 1.0
-1.31047152029e-17 3.62094842326e-17 1.0
-9.36512960104e-18 3.72481589251e-17 1.0
6.85668689314e-18 3.16227612259e-17 1.0
3.49706611594e-17 1.92744475139e-17 1.0
8.52436945023e-18 2.67725714558e-17 1.0
2.91495514336e-17 5.30673408617e-17 1.0
2.88865678904e-17 4.94274363365e-17 1.0
3.88832132853e-17 3.74271613073e-17 1.0
6.01729030214e-17 2.30911147235e-17 1.0
6.64063435756e-17 2.70589631255e-17 1.0
6.53666091897e-17 2.63989399273e-17 1.0
4.84940182254e-17 1.76679767206e-17 1.0
2.81764185556e-17 1.60152573378e-17 1.0
3.33130701428e-17 2.77864185443e-18 1.0
3.16191202925e-17 -5.47664845087e-18 1.0
3.3120831233e-17 -6.00505011553e-18 1.0
2.75350104109e-17 1.38768251435e-18 1.0
-1.41354392008e-18 2.69184229983e-17 1.0
6.93974133163e-18 5.03965925178e-17 1.0
7.2319129795e-18 4.97226890659e-17 1.0
3.18417050232e-18 4.54050388646e-17 1.0
4.09302522379e-18 5.39404117168e-17 1.0
3.58459172174e-18 7.55906346942e-17 1.0
2.65092310962e-18 8.80797980966e-17 1.0
1.2000594587e-17 8.75743798501e-17 1.0
4.04547325041e-18 7.17143054049e-17 1.0
2.7875087889e-17 4.14346713999e-17 1.0
1.70956822197e-17 4.4991793902e-17 1.0
2.06178180177e-17 3.60712745403e-17 1.0
5.41598844345e-17 1.28010383358e-17 1.0
1.9196234668e-17 1.46193107386e-17 1.0
1.95684383404e-17 1.90275912104e-17 1.0
-2.52126145686e-18 1.4194780973e-17 1.0
2.65565024011e-17 2.23699992954e-17 1.0
4.99256002148e-17 2.6359241578e-17 1.0
7.51501763447e-17 4.25826585722e-17 1.0
6.24424777297e-17 3.6637108136e-17 1.0
7.06446185909e-17 2.72421069345e-17 1.0
3.3960036071e-17 3.84557029787e-17 1.0
1.14781098534e-17 3.67186474236e-17 1.0
1.2247029413e-17 1.94120991582e-17 1.0
2.21906179222e-17 5.52809095834e-18 1.0
4.49895400397e-17 2.50001008609e-17 1.0
2.02427730212e-17 1.95073823941e-17 1.0
3.35269372374e-17 1.1590339852e-17 1.0
3.33443532489e-17 3.98864837449e-17 1.0
5.01840487981e-17 2.31099984092e-17 1.0
6.33478695457e-17 -2.75001189445e-18 1.0
6.94641939631e-17 1.18408576037e-17 1.0
5.27592914558e-17 3.04417175067e-17 1.0
4.37491913834e-17 2.92362844326e-17 1.0
2.39591040836e-17 2.42660997961e-18 1.0
2.7981222164e-17 -1.51267855225e-17 1.0
2.07716245821e-17 -2.76564669913e-17 1.0
2.21846696346e-17 -2.04108660544e-17 1.0
2.89031432292e-17 -7.84148398809e-18 1.0
1.98650663409e-17 1.67614338644e-17 1.0
1.61174772141e-17 2.98047202642e-17 1.0
2.00610670522e-17 2.9545251194e-17 1.0
2.15815381627e-17 3.77693002468e-17 1.0
1.73143554476e-17 5.90228605728e-17 1.0
1.64267781976e-17 6.42494715417e-17 1.0
1.79664914437e-17 7.13463493414e-17 1.0
1.34826175933e-17 6.63618091325e-17 1.0
1.39814617957e-17 5.09137004261e-17 1.0
5.72736224798e-18 3.3668865441e-17 1.0
-5.67369080439e-18 3.87695338834e-17 1.0
1.94440018973e-17 2.62486586292e-17 1.0
3.18439109827e-17 2.09116283563e-17 1.0
2.68127592003e-17 1.02514891353e-17 1.0
1.78314243612e-17 1.5458543008e-17 1.0
2.86645907462e-17 9.04897150549e-19 1.0
2.06613870419e-17 1.30017895849e-17 1.0
3.68520776068e-17 1.65179108348e-17 1.0
5.37249675068e-17 3.59625253822e-17 1.0
5.96691626894e-17 3.56000315307e-17 1.0
6.75597370486e-17 2.3579730443e-17 1.0
5.00865595935e-17 3.97236789195e-17 1.0
5.08725585004e-17 3.63057313886e-17 1.0
5.55340605691e-17 2.19779645987e-17 1.0
4.51834452456e-17 -1.72629445682e-18 1.0
4.71467917016e-17 1.29520848299e-17 1.0
5.44703036715e-17 1.76615536882e-17 1.0
5.52324922175e-17 1.57587101475e-17 1.0
5.88529948802e-17 2.10937613357e-17 1.0
7.59621944108e-17 -1.24765054297e-18 1.0
5.79764199801e-17 -8.072744077e-18 1.0
5.47541156028e-17 1.64546199723e-17 1.0
4.11343888972e-17 2.86026947206e-17 1.0
3.61004296876e-17 1.84515858847e-17 1.0
3.21331800913e-17 6.26811989876e-20 1.0
2.82218223834e-17 -1.89117493716e-17 1.0
2.18721471283e-17 -2.15613965285e-17 1.0
2.46214383477e-17 -2.63031406959e-17 1.0
3.46099949709e-17 -8.89244080221e-18 1.0
2.94824925083e-17 7.44592437972e-18 1.0
3.51846948898e-17 1.15136299189e-17 1.0
3.48049474856e-17 1.19876430082e-17 1.0
2.39410735071e-17 4.63276086256e-17 1.0
3.80927379684e-17 3.33507003199e-17 1.0
2.97751739443e-17 4.23441024394e-17 1.0
1.37977029764e-17 6.23558951858e-17 1.0
1.32868006763e-17 5.94182250046e-17 1.0
-5.50168695678e-18 4.67942844718e-17 1.0
-3.7910028993e-18 3.26559430422e-17 1.0
1.03301694525e-18 1.89809848856e-17 1.0
1.92836747356e-17 1.46348315527e-17 1.0
5.03639796295e-17 1.48406271705e-17 1.0
1.8641642507e-17 2.24621597888e-17 1.0
4.2902697525e-17 1.9761695039e-18 1.0
3.05318096684e-17 1.24238378614e-17 1.0
3.72341805626e-17 3.14906967305e-17 1.0
3.34094086587e-17 1.73401657688e-17 1.0
3.13684637937e-17 1.60609613444e-17 1.0
4.83119273708e-17 1.15320774828e-17 1.0
3.73394090522e-17 2.49584304238e-17 1.0
5.61197803152e-17 3.5491572701e-17 1.0
6.14533066376e-17 2.98992832998e-17 1.0
7.89634124997e-17 3.76717077269e-17 1.0
5.8263599963e-17 2.35728655796e-17 1.0
4.9986122562e-17 1.16003371013e-17 1.0
5.61860803732e-17 -1.44033211145e-18 1.0
6.02666999633e-17 -7.75353455355e-18 1.0
6.73493757705e-17 -4.21546201902e-18 1.0
6.15316739386e-17 -6.32408456272e-18 1.0
5.00758431634e-17 6.135843783e-18 1.0
3.77010239932e-17 3.36227918867e-17 1.0
5.26439374829e-17 4.35413748296e-17 1.0
4.367977252e-17 2.49477870917e-17 1.0
4.16652381131e-17 -1.70279925181e-18 1.0
3.814287758e-17 -2.78221795401e-17 1.0
3.05496316088e-17 -2.9732030722e-17 1.0
1.15533045874e-17 -3.23028331223e-17 1.0
1.81016209052e-17 -1.36403473225e-17 1.0
1.83126227417e-17 -2.48247052966e-17 1.0
1.90294023541e-17 -1.53968021326e-17 1.0
3.4457892574e-18 1.94084230144e-17 1.0
4.94934671122e-18 4.08535103836e-17 1.0
4.77808835062e-18 1.03844652292e-17 1.0
-5.21927454062e-18 3.70574528035e-17 1.0
4.47316916956e-18 4.4317005284e-17 1.0
-6.49284582762e-19 4.4816991063e-17 1.0
-7.06064632495e-18 4.33173458734e-17 1.0
-1.98286900189e-18 1.72520773928e-17 1.0
-1.62576172621e-18 8.24044235791e-18 1.0
1.79363424708e-17 4.16881043396e-18 1.0
3.17412341467e-17 1.17358019472e-17 1.0
4.44568031417e-17 6.87611121599e-18 1.0
6.63257925796e-17 1.17190104025e-17 1.0
5.18230487281e-17 2.19118687961e-17 1.0
7.41851375105e-17 2.42005511527e-17 1.0
5.45590661555e-17 2.86002728093e-17 1.0
3.63631628955e-17 1.73698586671e-17 1.0
4.99101149026e-17 2.33279712636e-17 1.0
2.69167805697e-17 2.47326771701e-17 1.0
4.98199196168e-17 2.67392688887e-17 1.0
5.26897523772e-17 3.16153505196e-17 1.0
6.71548612345e-17 4.53261587523e-17 1.0
6.62550971999e-17 3.9609117486e-17 1.0
6.14512568528e-17 1.01381662473e-17 1.0
6.08290402709e-17 -4.46230035578e-18 1.0
3.34099048823e-17 -1.04936437685e-17 1.0
3.13353308909e-17 -5.54554236605e-19 1.0
3.64486111631e-17 -4.54985333276e-18 1.0
2.47989322847e-17 2.54796857644e-18 1.0
2.32867999486e-17 1.82987038043e-17 1.0
3.54414788287e-17 3.03596026703e-17 1.0
4.42879615887e-17 3.33059214933e-17 1.0
2.68874260774e-17 -6.63059386739e-18 1.0
2.73557049173e-17 -3.3131369778e-17 1.0
1.47384897701e-17 -5.20392807715e-18 1.0
-1.25169935679e-18 -5.44696384623e-18 1.0
-3.32145336289e-18 -1.33552994293e-17 1.0
-1.07613684345e-17 -2.54419345063e-18 1.0
-1.59450763902e-17 2.84712775743e-18 1.0
-2.36186638001e-17 1.1812140948e-17 1.0
1.41419264092e-18 1.30052100382e-17 1.0
-1.14730646291e-17 2.12035212065e-17 1.0
-2.21290261349e-17 2.08785930589e-17 1.0
-2.5041380581e-18 2.27274625528e-17 1.0
1.13028595014e-18 4.08788062567e-17 1.0
2.01795532306e-17 3.42939401882e-17 1.0
2.32068512882e-17 1.36614970455e-17 1.0
2.16040270629e-17 3.45675623726e-18 1.0
3.3175467207e-17 -6.68102112873e-18 1.0
3.29275621886e-17 3.60893258516e-19 1.0
6.52306882963e-17 1.27544862167e-18 1.0
5.67770248237e-17 6.1442938653e-18 1.0
7.4854622312e-17 9.1067106865e-18 1.0
5.81653033061e-17 2.71701941023e-17 1.0
6.56134216812e-17 5.25727257207e-17 1.0
4.84086637325e-17 2.8776534279e-17 1.0
7.11786615432e-17 1.90605426641e-17 1.0
7.38271812614e-17 3.41110323519e-17 1.0
5.07010165655e-17 3.07965745753e-17 1.0
6.08807414308e-17 2.68999589252e-17 1.0
4.51201605457e-17 4.72127442629e-17 1.0
7.16949575754e-17 4.35488464041e-17 1.0
7.97994257059e-17 1.94568477536e-17 1.0
6.91506478297e-17 1.95385378931e-17 1.0
3.36082713219e-17 9.33849091981e-18 1.0
3.78851423025e-17 -1.32328589691e-17 1.0
3.96512802023e-17 -1.61686950274e-18 1.0
3.1865978321e-17 2.00224807982e-17 1.0
3.61360800543e-17 2.32869812354e-17 1.0
2.44522251199e-17 2.16157864928e-17 1.0
5.0947015704e-17 3.30556634499e-17 1.0
4.37991770377e-17 5.40825731157e-18 1.0
1.99667551346e-17 -3.08356314754e-17 1.0
1.3112372677e-17 -1.55831359028e-17 1.0
2.74802396104e-17 -1.67045469537e-17 1.0
1.23412741928e-17 -3.6106028664e-20 1.0
1.67492874419e-17 6.24845238049e-18 1.0
7.13656230188e-18 3.44643600421e-17 1.0
1.03607033751e-17 9.11584695248e-18 1.0
3.55203303559e-18 -2.06547883638e-18 1.0
1.01424759208e-18 3.74939531201e-17 1.0
-5.96615319971e-18 2.44065328066e-17 1.0
-6.21399976771e-19 1.52300538728e-18 1.0
9.64616936303e-18 1.52783580031e-17 1.0
1.18787043773e-17 1.84934573918e-17 1.0
1.57418338282e-17 -5.53078842465e-18 1.0
3.28289391364e-17 -1.17082642952e-17 1.0
3.75713919298e-17 -1.07406775554e-18 1.0
3.52809900635e-17 2.5536857376e-18 1.0
5.35919695827e-17 8.78040097842e-18 1.0
5.19915629403e-17 1.07853712267e-17 1.0
4.23280124576e-17 8.2343532273e-18 1.0
4.17646665455e-17 2.53948228801e-17 1.0
5.3871193595e-17 4.15800144077e-17 1.0
6.24375470945e-17 2.71690392112e-17 1.0
6.59388711064e-17 1.93547255296e-17 1.0
9.40556643104e-17 5.607574927e-17 1.0
8.51538110681e-17 4.50232384597e-17 1.0
8.78877401289e-17 4.25010761739e-17 1.0
7.10577332486e-17 5.31361668263e-17 1.0
8.84601922806e-17 2.66202251969e-17 1.0
8.70905880977e-17 2.78995775816e-17 1.0
8.12696862508e-17 3.3816254673e-17 1.0
6.88549989238e-17 1.28824092207e-17 1.0
5.74928430038e-17 -1.74753648147e-18 1.0
2.71933633258e-17 1.14057118173e-18 1.0
2.65731344307e-17 1.66323464242e-17 1.0
3.60460428832e-17 4.0974631745e-17 1.0
3.79436035038e-17 2.72087549713e-17 1.0
4.5974080708e-17 2.08207462185e-17 1.0
7.97388987249e-17 1.55610691422e-17 1.0
5.0993322717e-17 -1.36842590122e-17 1.0
4.42399221552e-17 -2.82210836795e-17 1.0
3.16776426894e-17 -1.94726733549e-17 1.0
1.89008844979e-17 8.74341726173e-18 1.0
3.23390662114e-17 7.03918715805e-18 1.0
1.51281558839e-17 1.85419133445e-17 1.0
2.328398072e-17 1.49869323724e-17 1.0
7.56834431411e-18 1.46275741475e-17 1.0
-6.89596463037e-18 3.76616475275e-17 1.0
1.46031958275e-17 2.59893740661e-17 1.0
7.99031028042e-19 1.08511659651e-17 1.0
-5.36222848846e-18 1.83915405367e-17 1.0
9.66523059577e-18 -5.95129285783e-18 1.0
-1.74382942632e-19 -6.89151476438e-18 1.0
2.93437142871e-17 -6.32010491565e-18 1.0
2.06958871475e-17 1.07979901929e-17 1.0
2.82222547032e-17 1.64657837052e-17 1.0
2.92488418539e-17 1.62796424518e-17 1.0
5.66331704137e-17 1.93458823935e-17 1.0
3.97910799818e-17 4.28740737444e-18 1.0
5.97362107849e-17 2.33694868465e-17 1.0
6.35316531557e-17 4.46331787135e-17 1.0
7.25632304261e-17 2.51476495696e-17 1.0
6.87975406977e-17 2.25146970569e-17 1.0
7.56241179292e-17 3.91757880435e-17 1.0
9.18018929392e-17 4.38041066976e-17 1.0
8.77622598139e-17 5.36527580032e-17 1.0
1.04173277736e-16 4.84652840136e-17 1.0
1.17379599914e-16 3.85429945097e-17 1.0
8.55702158006e-17 4.09784448612e-17 1.0
8.33020353274e-17 3.54453790552e-17 1.0
8.49274648622e-17 2.30064535734e-17 1.0
6.02907933487e-17 2.45808617014e-17 1.0
3.10777873156e-17 3.41264015623e-17 1.0
2.45937152164e-17 2.96165057319e-17 1.0
7.19454479234e-18 4.13338821219e-17 1.0
4.45812172421e-17 4.59135768725e-17 1.0
4.08160750072e-17 1.29342723242e-17 1.0
7.11819430647e-17 -3.36339789012e-18 1.0
7.91669539245e-17 -6.41157035889e-18 1.0
6.3216411929e-17 -9.63735421838e-18 1.0
4.19037211603e-17 -6.29574828617e-18 1.0
3.20154431004e-17 -6.46170996791e-18 1.0
4.22119277118e-17 -1.63423528278e-17 1.0
8.89273730236e-18 -4.66017770573e-18 1.0
-4.33862427756e-18 -1.48804648727e-18 1.0
1.16905803097e-17 1.99402136123e-17 1.0
6.11061497091e-18 2.67648127935e-17 1.0
1.0702356782e-17 2.392188544e-17 1.0
1.07790074314e-17 3.47151669299e-17 1.0
-5.98008141272e-18 1.65427990519e-17 1.0
1.3063158459e-18 1.54548532093e-17 1.0
2.99395427117e-18 -3.15663878586e-18 1.0
2.60960851328e-17 6.02007343984e-21 1.0
2.50991096686e-17 2.54300133198e-17 1.0
2.56157415951e-17 2.63875786423e-17 1.0
2.64660379828e-17 1.31583146364e-17 1.0
5.53667857208e-17 1.06975312398e-17 1.0
6.36058081979e-17 2.46744691945e-18 1.0
5.81016017292e-17 1.0327164953e-17 1.0
7.2290826485e-17 3.56137447129e-17 1.0
8.13460688278e-17 3.44686663084e-17 1.0
8.71711949399e-17 4.43939001074e-17 1.0
8.14326015182e-17 4.9813043768e-17 1.0
7.80384429606e-17 4.65646243033e-17 1.0
7.07340086707e-17 5.15969630554e-17 1.0
8.86894404335e-17 3.53325540686e-17 1.0
9.57006238034e-17 4.12797938216e-17 1.0
9.67612418772e-17 5.54062873824e-17 1.0
8.35667159263e-17 4.25033941987e-17 1.0
8.89720732554e-17 3.36058979973e-17 1.0
7.0233077973e-17 4.37644306078e-17 1.0
5.34882442228e-17 3.74760151487e-17 1.0
4.92125958582e-17 3.69144316288e-17 1.0
5.45353987297e-17 4.45364554311e-17 1.0
7.12128943248e-17 4.93225748675e-17 1.0
8.11090392141e-17 2.25724587085e-17 1.0
8.38592108714e-17 -1.92141423805e-17 1.0
8.33071268618e-17 -2.07386264901e-17 1.0
6.83358368511e-17 1.29248907102e-18 1.0
5.48166097068e-17 9.87490188974e-18 1.0
3.60504232913e-17 6.31035474284e-19 1.0
3.04126265379e-17 -8.29862561345e-18 1.0
2.17661710377e-17 -7.20327965163e-18 1.0
1.37889050235e-17 2.55267195319e-18 1.0
3.38909335418e-18 1.80971221085e-17 1.0
-2.99413417077e-19 1.37190661231e-17 1.0
-9.94235321719e-18 2.56963262149e-17 1.0
-1.26901963146e-17 3.72487266457e-17 1.0
2.41513820977e-18 1.33536576974e-17 1.0
1.95051995606e-17 2.43657027052e-17 1.0
2.63858496839e-17 -6.46915427883e-18 1.0
3.02105112613e-17 -2.51498437047e-18 1.0
4.1115396787e-17 4.56771840849e-17 1.0
5.30158838222e-17 4.54044898118e-17 1.0
6.22573605247e-17 1.09788324928e-17 1.0
5.47657003651e-17 -2.32195898726e-19 1.0
5.74980709513e-17 1.47412315506e-17 1.0
5.21062245969e-17 2.04430714306e-17 1.0
6.79834239452e-17 2.90927208393e-17 1.0
7.22345316963e-17 3.40693078964e-17 1.0
8.24267385419e-17 3.66156908788e-17 1.0
9.44864708605e-17 5.24876071327e-17 1.0
8.33807893504e-17 5.97458600492e-17 1.0
8.11947582412e-17 6.18387715006e-17 1.0
7.85828289227e-17 5.05328798429e-17 1.0
7.53173611119e-17 3.38263609309e-17 1.0
8.6156169365e-17 5.13932633527e-17 1.0
8.80809330296e-17 5.7828691678e-17 1.0
8.69781178094e-17 4.99722888928e-17 1.0
6.65335673013e-17 5.25321705325e-17 1.0
5.63953184789e-17 4.74225916297e-17 1.0
5.74167908411e-17 3.75453024029e-17 1.0
8.32501464969e-17 3.4723262247e-17 1.0
1.01164343838e-16 3.83395802885e-17 1.0
1.10747320372e-16 1.51085190206e-17 1.0
7.73340733808e-17 -7.86520807681e-18 1.0
7.23952713585e-17 1.72889862118e-18 1.0
7.04855520888e-17 1.45772182759e-17 1.0
5.91251383423e-17 2.70895185327e-17 1.0
3.33799089617e-17 2.33326614994e-17 1.0
2.6963825319e-17 -5.98129910778e-18 1.0
3.89387008284e-17 -8.35427151923e-18 1.0
2.46887312017e-17 1.62747464889e-17 1.0
-3.95656490261e-18 6.56411003054e-18 1.0
-1.67887822723e-17 1.75704682973e-17 1.0
-5.63387476516e-18 3.08195214954e-17 1.0
-2.523755011e-17 3.0922520819e-17 1.0
2.35673264029e-18 3.43395751404e-17 1.0
2.5340687258e-17 2.26316434447e-17 1.0
3.03321260831e-17 5.42467789972e-18 1.0
3.86071998301e-17 1.02833197704e-17 1.0
3.815664602e-17 2.91203315072e-17 1.0
7.384010699e-17 3.31499984718e-17 1.0
8.33136795352e-17 3.08835174063e-17 1.0
6.61664808832e-17 2.56134311413e-17 1.0
4.80607631483e-17 2.31721258882e-17 1.0
5.30975034456e-17 8.74662965885e-18 1.0
6.85224785543e-17 2.23126344514e-17 1.0
8.84586161936e-17 3.05233446441e-17 1.0
8.32547779626e-17 2.72655642381e-17 1.0
9.46092074618e-17 5.59760369768e-17 1.0
8.65760482311e-17 6.88668711344e-17 1.0
8.89208738234e-17 6.38139702548e-17 1.0
9.78680520047e-17 4.85039679843e-17 1.0
9.49895863128e-17 3.48663763406e-17 1.0
7.88763465788e-17 6.09297338251e-17 1.0
8.14696154365e-17 5.81343449713e-17 1.0
4.75052072909e-17 5.60442270542e-17 1.0
4.13812158111e-17 6.67984895697e-17 1.0
6.45647494638e-17 4.17763647478e-17 1.0
7.9666459821e-17 3.63942602235e-17 1.0
8.92494641167e-17 1.97978679979e-17 1.0
9.96722774162e-17 5.98925801389e-18 1.0
8.95159452349e-17 3.21120018125e-17 1.0
5.27573666537e-17 1.64922882144e-17 1.0
4.62656696118e-17 -9.28262464178e-18 1.0
3.98179258849e-17 4.20129378536e-18 1.0
5.76087377977e-17 3.4716537865e-17 1.0
5.66234221253e-17 4.13930345217e-17 1.0
4.26572405525e-17 1.99570117801e-17 1.0
2.262832657e-17 1.99014397054e-17 1.0
9.77147211178e-18 1.82707856086e-17 1.0
-1.51494208741e-17 1.01975179655e-17 1.0
-1.9545183814e-17 1.06983661334e-18 1.0
-1.68577199704e-18 1.85396372809e-17 1.0
-6.38536219242e-18 2.64761267091e-17 1.0
-9.28894238846e-18 2.37987683551e-17 1.0
3.12131452993e-17 2.89591761668e-17 1.0
4.61550181273e-17 9.46433971218e-18 1.0
5.03641316377e-17 1.71149852238e-17 1.0
4.19206989491e-17 3.01303119365e-17 1.0
6.25856764951e-17 1.70922435498e-17 1.0
6.07384793243e-17 2.48542025311e-17 1.0
6.80560760511e-17 4.02307829472e-17 1.0
6.50795734847e-17 4.20790527926e-17 1.0
7.43139902094e-17 1.64406320607e-17 1.0
6.23518739143e-17 1.12714794321e-17 1.0
8.4287942188e-17 2.75724705523e-17 1.0
9.23669744627e-17 2.31962601446e-17 1.0
9.61553375159e-17 3.51291869766e-17 1.0
9.50155379825e-17 6.97623156953e-17 1.0
8.62160986891e-17 6.50991553678e-17 1.0
9.07916943505e-17 5.77476457906e-17 1.0
9.13377556831e-17 7.316081879e-17 1.0
7.85649436117e-17 7.20586121889e-17 1.0
7.23698844072e-17 7.08353981279e-17 1.0
4.62813834506e-17 6.79361896104e-17 1.0
5.94144014536e-17 3.44593423844e-17 1.0
7.89822189339e-17 2.34235120526e-17 1.0
9.99287654804e-17 3.31424458248e-17 1.0
1.18335855686e-16 3.61768754052e-17 1.0
8.88794552867e-17 2.88084288214e-17 1.0
4.96941418231e-17 3.01409131705e-17 1.0
4.7059734528e-17 1.35807773179e-17 1.0
2.14365457983e-17 5.79664665174e-18 1.0
1.00837523598e-17 5.19918106872e-18 1.0
1.71770959804e-17 8.51637061541e-18 1.0
4.10894431664e-17 3.26683819307e-17 1.0
4.62569705815e-17 2.21063252432e-17 1.0
2.86419779256e-17 1.39177600968e-17 1.0
1.17360658761e-18 1.95819703823e-17 1.0
-2.09483360574e-17 1.02433693034e-17 1.0
-1.13250497486e-17 -4.36877239998e-18 1.0
-1.92727452533e-17 4.59799253016e-18 1.0
-1.54024297604e-17 1.12979177449e-17 1.0
-2.36041259439e-17 1.01893924561e-17 1.0
5.41463080407e-18 5.33351860335e-18 1.0
4.19188008159e-17 1.68382142208e-17 1.0
3.84635715895e-17 2.90570318826e-17 1.0
5.85823488531e-17 2.972451743e-17 1.0
5.71185885788e-17 1.94936659687e-17 1.0
4.50560447168e-17 2.74625746234e-17 1.0
4.53556656201e-17 2.93298485507e-17 1.0
7.27578985175e-17 2.84347377255e-17 1.0
8.30710258475e-17 3.67729307099e-17 1.0
7.68341529446e-17 3.53815585957e-17 1.0
6.71327034222e-17 7.85178262228e-18 1.0
7.63821961073e-17 8.77799787055e-18 1.0
7.67124021623e-17 3.59588342349e-17 1.0
8.87411407983e-17 6.88237722708e-17 1.0
8.21677268463e-17 8.73556793964e-17 1.0
6.52036237513e-17 7.65492602142e-17 1.0
8.36684630475e-17 7.68311507231e-17 1.0
6.93553425918e-17 6.53885628897e-17 1.0
5.79001719214e-17 4.67342927695e-17 1.0
4.54773671264e-17 5.63937187891e-17 1.0
6.88890721781e-17 5.042844316e-17 1.0
4.81250812864e-17 4.40159599536e-17 1.0
7.82921937425e-17 4.3260872626e-17 1.0
1.03275008694e-16 5.4709075662e-17 1.0
9.7977969003e-17 5.85775478872e-17 1.0
5.14211665959e-17 3.16680197464e-17 1.0
3.69900354399e-17 8.95519461203e-18 1.0
1.3634205351e-17 1.10169927278e-17 1.0
2.95647673146e-17 9.39511211753e-18 1.0
1.25195220759e-18 4.25593689002e-18 1.0
1.27968043513e-17 8.52950460856e-18 1.0
2.09465090901e-17 1.08257425239e-17 1.0
1.49623524704e-17 1.69161306947e-17 1.0
3.44226217767e-18 2.67142254802e-17 1.0
1.75507679221e-17 2.90659332624e-17 1.0
3.35647723202e-18 2.57819992983e-17 1.0
-7.39885380993e-18 2.25894643561e-17 1.0
-1.72359716736e-18 -1.56728241925e-18 1.0
1.87386361943e-19 1.67754292442e-17 1.0
-1.19114630929e-17 -3.85138381909e-18 1.0
1.6752849931e-17 1.11434552694e-17 1.0
2.01033653155e-17 2.48746984413e-17 1.0
5.66731739773e-17 3.13279662919e-17 1.0
5.03769135843e-17 3.71385262786e-17 1.0
5.71010931288e-17 3.30896686438e-17 1.0
4.77054670209e-17 1.47257535187e-17 1.0
8.06019102208e-17 1.93124866832e-17 1.0
8.93090323436e-17 2.75466486992e-17 1.0
9.79287038952e-17 3.31607768497e-17 1.0
7.96426450461e-17 3.45658615966e-17 1.0
5.9338298094e-17 1.66400952968e-17 1.0
5.63916766798e-17 2.63522912224e-17 1.0
5.33196068961e-17 5.71814426441e-17 1.0
6.77429409387e-17 8.63598710895e-17 1.0
6.58688572286e-17 7.42157889592e-17 1.0
5.95640164323e-17 6.98759392349e-17 1.0
6.79296161402e-17 6.56511760969e-17 1.0