# vtk DataFile Version 2.0

ASCII
DATASET RECTILINEAR_GRID
DIMENSIONS 40 38 26
X_COORDINATES 40 double
0.0 2.0 4.0 6.0 8.0 10.0 12.0 14.0 16.0 18.0 20.0 22.0 24.0 26.0 28.0 30.0 32.0 34.0 36.0 38.0 40.0 42.0 44.0 46.0 48.0 50.0 52.0 54.0 56.0 58.0 60.0 62.0 64.0 66.0 68.0 70.0 72.0 74.0 76.0 78.0
Y_COORDINATES 38 double
0.0 1.97297297297 3.94594594595 5.91891891892 7.89189189189 9.86486486486 11.8378378378 13.8108108108 15.7837837838 17.7567567568 19.7297297297 21.7027027027 23.6756756757 25.6486486486 27.6216216216 29.5945945946 31.5675675676 33.5405405405 35.5135135135 37.4864864865 39.4594594595 41.4324324324 43.4054054054 45.3783783784 47.3513513514 49.3243243243 51.2972972973 53.2702702703 55.2432432432 57.2162162162 59.1891891892 61.1621621622 63.1351351351 65.1081081081 67.0810810811 69.0540540541 71.027027027 73.0
Z_COORDINATES 26 double
0.0 2.0 4.0 6.0 8.0 10.0 12.0 14.0 16.0 18.0 20.0 22.0 24.0 26.0 28.0 30.0 32.0 34.0 36.0 38.0 40.0 42.0 44.0 46.0 48.0 50.0
CELL_DATA 36075
VECTORS Magnetisation double
0.303492314348 -0.857917500546 0.414574659944
0.245672171582 -0.874836476933 0.41750102638
0.211362698002 -0.888400411296 0.407517677908
0.202342194477 -0.897935878243 0.390856470802
0.215818006654 -0.902124637953 0.373622437776
0.246381989887 -0.899750039502 0.3602024454
0.288321196631 -0.890163372012 0.35281734379
0.337293339869 -0.873197954579 0.351793328023
0.391005103061 -0.848716008282 0.356084468683
0.448999389074 -0.81612728175 0.363779885482
0.511830895005 -0.774143592104 0.372465875224
0.579846993326 -0.721007862687 0.379374645573
0.651863570314 -0.655462679776 0.381369320353
0.724533740004 -0.578253814038 0.375064507919
0.793129285943 -0.493122320141 0.357458127785
0.853218454373 -0.406306371977 0.32700673094
0.901846559458 -0.325537546757 0.284074093798
0.937941178879 -0.258813234193 0.230829064429
0.962015202761 -0.213027111784 0.170722578337
0.975280971437 -0.192877666852 0.107820333186
0.978599507573 -0.200462453376 0.0464520253302
0.971886714637 -0.23529425848 -0.00853251252207
0.954486644705 -0.29383711972 -0.0511368365702
0.926708001897 -0.368318038705 -0.0745257720364
0.891853821132 -0.446265775314 -0.0737807148276
0.856529472002 -0.513608693237 -0.0506293562228
0.827021771805 -0.561975467141 -0.014786226049
0.80539670725 -0.592259601852 0.023776426423
0.790323346729 -0.609816783957 0.0592833011473
0.779154888461 -0.62041557208 0.0894802279885
0.769104814835 -0.62875493072 0.114685599709
0.757258462029 -0.638785531315 0.136099926347
0.739339028432 -0.654819245681 0.156847710675
0.710566521966 -0.679605561308 0.182325098218
0.66780929157 -0.711894770605 0.217361609065
0.610372972333 -0.747456539135 0.26222461088
0.539798487991 -0.781821637009 0.312057237059
0.460077410715 -0.812091054185 0.358946798898
0.378163871286 -0.837303927492 0.394864928156
0.0253774046684 -0.889559075759 0.456119213898
-0.0346562484711 -0.904928919082 0.42415115114
-0.0563953913537 -0.921432635061 0.384423984577
-0.0437981944598 -0.936964132928 0.346669773875
-0.00590370481744 -0.9483469519 0.317180077976
0.0469438852215 -0.953272464452 0.298442477407
0.106120157622 -0.95108309012 0.290137053994
0.166385990271 -0.942328674382 0.290400417992
0.226175388927 -0.927755277241 0.296841452982
0.286839485905 -0.907372275668 0.30724363574
0.351301648718 -0.879873958778 0.320013981727
0.422337854384 -0.842577652954 0.334205952013
0.500632462079 -0.792398422128 0.348528145948
0.58376524244 -0.727854157486 0.359786690964
0.667106883003 -0.650678211897 0.3627482188
0.745398766619 -0.565235194565 0.353397586124
0.813985147785 -0.478114495935 0.329901058007
0.869618973186 -0.397502141422 0.292839352125
0.911038053052 -0.331691067649 0.244929970396
0.938753447767 -0.287375051082 0.190151306518
0.953977306916 -0.268860591621 0.132820339392
0.957356921735 -0.278334630225 0.0774436674916
0.948272571548 -0.316067424642 0.0296731527288
0.925370159939 -0.379057341767 -0.00236555310036
0.889095234934 -0.457636579745 -0.00885382348376
0.845581434461 -0.533646226042 0.0146165828197
0.805325006258 -0.590147274336 0.056372144252
0.772783472725 -0.626291569866 0.102787604458
0.747535367888 -0.647913319601 0.146294420512
0.727397366918 -0.661242063003 0.183463680049
0.708608714198 -0.671742382129 0.215981249299
0.689086809791 -0.682262581859 0.244321475082
0.663181992296 -0.698163489551 0.269764878888
0.621633030492 -0.724546407433 0.297685167986
0.556856630304 -0.760056495541 0.335009954027
0.467027244246 -0.797930551828 0.381048046487
0.356453503976 -0.831174554082 0.426727428658
0.235486241082 -0.856369820283 0.459548526437
0.119551125237 -0.87455141903 0.469972549667
-0.2777644091 -0.865643273479 0.416547564732
-0.309922694732 -0.884517068279 0.348681745672
-0.295638885977 -0.911076306579 0.287294124319
-0.24637787034 -0.938755753737 0.240905696487
-0.176510927557 -0.961178051022 0.212086423413
-0.0993636019918 -0.974924162661 0.199122688157
-0.0244054687675 -0.979869537838 0.198141882361
0.0440228112671 -0.977810999646 0.204811544387
0.106394922124 -0.970705505604 0.215432130018
0.166463698397 -0.959420059281 0.227602674366
0.22916675306 -0.943084105696 0.240987394883
0.298198271372 -0.91896576899 0.258030355505
0.374003772487 -0.883661029901 0.281539229409
0.454458965482 -0.835264966137 0.309514902495
0.53811276204 -0.774411534465 0.332748295473
0.620956498503 -0.703477708692 0.345734204964
0.698562815359 -0.626468194807 0.345756551181
0.766781245109 -0.549493209026 0.331818817834
0.822581884724 -0.480104877638 0.304726646351
0.864667240705 -0.425528864963 0.266975111815
0.893070875601 -0.39135308406 0.221961993696
0.907905009901 -0.381678911153 0.173290697614
0.907847091345 -0.400163771357 0.125230244698
0.888913904573 -0.450097352626 0.0851143903814
0.845372933388 -0.529948992076 0.067071621193
0.778882581497 -0.620896434436 0.0884829742908
0.715423729582 -0.685296671757 0.136149933714
0.664003752827 -0.722966836669 0.190834315079
0.624825602274 -0.741839448665 0.24345228638
0.597247924493 -0.748329805422 0.288624414433
0.566098960179 -0.754783165369 0.331432008638
0.53377206461 -0.759360085416 0.372123411751
0.497722844344 -0.766196131967 0.406480051266
0.443787438122 -0.783390750288 0.435138485779
0.354989901864 -0.809339623195 0.467897260742
0.229605173987 -0.834115940095 0.501501164492
0.0805738236609 -0.849283548515 0.52173418154
-0.0693961532457 -0.854502788776 0.514785547526
-0.195154719418 -0.85701196848 0.476914784424
-0.526285206414 -0.796046133087 0.298885515376
-0.511862049896 -0.831802919481 0.214711627157
-0.453732328886 -0.87812617557 0.151727517961
-0.367253857633 -0.923135646934 0.113776259021
-0.269179257876 -0.958024460784 0.0986496101084
-0.173820074574 -0.979624476422 0.10061223851
-0.090002149713 -0.989524235398 0.112880049714
-0.0199016871655 -0.991389496164 0.129426593321
0.0399945708111 -0.988482019159 0.145958856443
0.0964089494928 -0.98239752363 0.160001475956
0.155930352914 -0.972662903177 0.172082972685
0.219445474094 -0.957089403255 0.189270959463
0.280930378591 -0.934096824273 0.220320696653
0.336479387174 -0.904030667951 0.263647793887
0.4018516276 -0.864598263255 0.301637380375
0.472543572895 -0.81755950138 0.329088185559
0.542849577915 -0.765398528694 0.345657962733
0.608498782836 -0.71160151225 0.351215762166
0.666237326672 -0.660878299704 0.345496277871
0.71382000541 -0.618259635792 0.328961988847
0.749902193672 -0.588108230242 0.302944508816
0.773283613465 -0.574196761778 0.268943343596
0.781214925067 -0.581170322289 0.227912985624
0.765792312614 -0.617117250417 0.18091008722
0.707013307791 -0.694208303273 0.134932786412
0.575530957526 -0.809011880773 0.119428625606
0.468847878845 -0.869740655184 0.154049322847
0.393835776272 -0.8950799811 0.209099331577
0.34644383154 -0.897075707858 0.274279996857
0.33986300848 -0.873436696779 0.348716660028
0.295034346371 -0.862946523424 0.41022830853
0.239154386278 -0.849735239865 0.469862163675
0.192220271006 -0.832446133298 0.519701483969
0.143931522565 -0.824963238536 0.546518556269
0.0478166060468 -0.8239462543 0.564568709671
-0.093964724288 -0.81805786248 0.567313276772
-0.251941577192 -0.802578958823 0.540657197287
-0.391429634638 -0.785393873744 0.479477511339
-0.486659254693 -0.780216747015 0.392953086379
-0.68148674574 -0.715738115233 0.152595931144
-0.624328702935 -0.777703495105 0.0734056093303
-0.529723888842 -0.847814165114 0.0245505120459
-0.414452165752 -0.91005031666 0.00612846530115
-0.297059666865 -0.954780228034 0.0122788266804
-0.19269924387 -0.980664665445 0.0341313793999
-0.109211857788 -0.992037419081 0.0627368476651
-0.0461659978275 -0.994760076017 0.0912264602545
0.00305467324834 -0.993263218938 0.11584270229
0.0488780327055 -0.989808984297 0.133751025619
0.102065270013 -0.984247789761 0.144357062164
0.152946623113 -0.975397590679 0.158766560998
0.172742241901 -0.966741045375 0.188604987398
0.148535936366 -0.963664882344 0.222006891422
0.174036703044 -0.951041168889 0.255405400995
0.222170844204 -0.93429437016 0.27880844129
0.274725947674 -0.916072649232 0.292124213227
0.324114847248 -0.898185229152 0.297006494297
0.36721933818 -0.882377031925 0.29421203882
0.402439665656 -0.870237759813 0.284127694826
0.428721066405 -0.862977549096 0.26733498809
0.44500391861 -0.861594853705 0.24418403979
0.448969075207 -0.867784281833 0.213019384085
0.43286602132 -0.886222789577 0.165033833326
0.364574798212 -0.928696953727 0.0678741538218
0.0805352619795 -0.97761654601 -0.19436886346
-0.0372700463503 -0.974888440862 -0.219548599332
-0.100731755206 -0.980633308863 -0.167950140176
-0.129326097626 -0.989374799465 -0.0663665397112
-0.0433505275616 -0.974726464353 0.219135125881
-0.115448938226 -0.941018084582 0.318046969795
-0.219286869536 -0.891900213706 0.395528785845
-0.277821707345 -0.830872164151 0.482173564883
-0.254708495217 -0.801735657499 0.540654252816
-0.310981640171 -0.770136438631 0.556815635841
-0.426619819418 -0.732729439326 0.530012259571
-0.55055190122 -0.695126628043 0.462099163727
-0.644583341353 -0.672209656182 0.364090218796
-0.689763946092 -0.677826171095 0.254450774698
-0.76142132169 -0.647834928757 0.023043934927
-0.673824246128 -0.737737932137 -0.041210404871
-0.552957215864 -0.830340166205 -0.0690766931617
-0.418156505138 -0.906208488883 -0.062700040951
-0.291118901561 -0.956181086226 -0.0311311644215
-0.188490555193 -0.981979704618 0.0137765964692
-0.117177181141 -0.991250852205 0.0607782021049
-0.0744492265129 -0.991970318813 0.102246494177
-0.0539017694271 -0.989256183861 0.135897091089
-0.0410294317309 -0.986811601573 0.156588257421
-0.00423874076303 -0.986486741487 0.163786491409
0.0213917639832 -0.98609862328 0.164778313851
-0.0513537895259 -0.988661292852 0.141108595696
-0.252378130374 -0.967324652561 -0.0242547527716
-0.261822964071 -0.964113351537 -0.0439793092058
-0.222385208172 -0.973625490305 -0.0509727881127
-0.176108751565 -0.981894471993 -0.0697778955464
-0.136421175365 -0.985561303493 -0.100290470498
-0.107398080755 -0.984453411388 -0.138986071111
-0.0902379823712 -0.979108888938 -0.1822165852
-0.085094338076 -0.970323251915 -0.226344294497
-0.0918449675108 -0.959082203361 -0.267816802944
-0.1117376313 -0.946160435205 -0.303801157928
-0.151109397349 -0.930721838956 -0.333050681898
-0.226965869737 -0.907499071823 -0.353456723367
-0.359311388756 -0.866939697085 -0.345412844726
-0.424435079602 -0.853050651592 -0.303573864746
-0.446494576535 -0.858471786292 -0.252315372472
-0.45108965511 -0.868184479615 -0.206788345481
-0.450972942336 -0.875173479511 -0.175130705104
-0.54744122278 -0.816926845253 -0.181383729064
-0.715837410732 -0.681886128146 -0.150285483179
-0.84341581393 -0.53629258263 0.033175355303
-0.665519034532 -0.656966542338 0.354256753829
-0.631967311346 -0.642752063341 0.432866508948
-0.68566010976 -0.602939385822 0.407577585814
-0.754774642525 -0.566859796345 0.329824068245
-0.800249935047 -0.555468095468 0.225688208083
-0.80440240568 -0.582428246197 0.116892052081
-0.799670865181 -0.595865336101 -0.0738181020192
-0.691615300229 -0.712046013167 -0.121042818896
-0.552773053232 -0.82386526811 -0.125241771799
-0.407607049488 -0.908640702628 -0.0907162139879
-0.282739425089 -0.958726887365 -0.0300765998481
-0.197294046239 -0.979479476058 0.041223494428
-0.156955367207 -0.981733770375 0.107553122362
-0.156067343047 -0.974965294001 0.158393235396
-0.201730841117 -0.96121910719 0.188052996947
-0.277030153701 -0.9449567915 0.17410167576
-0.27295000915 -0.947400692549 0.167123607247
-0.273766366357 -0.951730820125 0.138781992338
-0.448710884341 -0.890567950174 -0.0744801049311
-0.509679581535 -0.854875983964 -0.0970246400268
-0.496714385305 -0.862885429268 -0.0932928522219
-0.465502213737 -0.878659328737 -0.106138936154
-0.44178045273 -0.886647195516 -0.136699608109
-0.433084672855 -0.88348830662 -0.178566734578
-0.439454820289 -0.869471436231 -0.225607809925
-0.458408764485 -0.846011603968 -0.272260490014
-0.486495864475 -0.815577071957 -0.313298292278
-0.519807405291 -0.781893381116 -0.344155496189
-0.554943585666 -0.749303266058 -0.361361611888
-0.590522044182 -0.721194952104 -0.362162214976
-0.626940640522 -0.699562611021 -0.342866325157
-0.658636844449 -0.689595688078 -0.301088964049
-0.661700681371 -0.702022054646 -0.263278212948
-0.647623941342 -0.721199337735 -0.245866717417
-0.641092404383 -0.723009357851 -0.25738705676
-0.670583531211 -0.678430246728 -0.300046467874
-0.76678279084 -0.541650880892 -0.34440789903
-0.898847363321 -0.304634830229 -0.315010732248
-0.988411760728 -0.0651362876234 -0.137250114929
-0.990871644548 -0.0418851201319 0.128565181096
-0.893326862394 -0.37758036413 0.243674879903
-0.862650875591 -0.441297357337 0.246824378751
-0.874824322776 -0.443904314434 0.19346296572
-0.884524058806 -0.454169991797 0.105869155351
-0.863798640685 -0.503706562746 0.00828184698687
-0.818882059529 -0.556491474327 -0.140449140908
-0.697179878437 -0.696307591851 -0.170551048053
-0.548034130707 -0.823039847751 -0.149201900412
-0.403940847041 -0.910969154165 -0.0834783579482
-0.299127113374 -0.954165184234 0.00983669614643
-0.257992007679 -0.959989350961 0.108931725899
-0.281557704021 -0.94127621464 0.186356569597
-0.347878374669 -0.909327929829 0.228267865822
-0.506709137461 -0.840789330287 0.190578934866
-0.7156480102 -0.696106962476 -0.0572998429253
-0.74293501155 -0.664602304597 -0.0796955565379
-0.713661937359 -0.695797872153 -0.0809441688736
-0.700961914182 -0.707242365083 -0.0919816812796
-0.669820074403 -0.737513985131 -0.0861056891017
-0.629527084471 -0.77149700018 -0.0921305041332
-0.59999882896 -0.791719136747 -0.114813823764
-0.590944217112 -0.792993481339 -0.148142737376
-0.602659989106 -0.776131762003 -0.185527429282
-0.63076019425 -0.743710654841 -0.221440839399
-0.669109309021 -0.699513553292 -0.250945281116
-0.711180254069 -0.649110871512 -0.269958774235
-0.750890206461 -0.599902515672 -0.276189935595
-0.783412150459 -0.559906674986 -0.26975897141
-0.805613602039 -0.535770566623 -0.252856779034
-0.815413510684 -0.531497561955 -0.229370791423
-0.810455075155 -0.547806849644 -0.207532701531
-0.790918274156 -0.576667445147 -0.204700247925
-0.769418367194 -0.595680818755 -0.230561420803
-0.766642820047 -0.575489015111 -0.284726968991
-0.801070618918 -0.482841183172 -0.353760675121
-0.871072162957 -0.288637355772 -0.397382633604
-0.935449204138 -0.00920872832021 -0.353327523671
-0.948913533779 0.254772377339 -0.186215353922
-0.932865865318 0.356621002866 0.0516191173969
-0.956696947689 0.194527623943 0.216634269323
-0.97252291962 -0.21204094716 0.0957008462319
-0.943481731746 -0.322600784766 0.0748815962408
-0.929884522039 -0.367378798981 0.0146311590116
-0.895543718715 -0.439460897135 -0.0693544191248
-0.828842313723 -0.528429556628 -0.183745710799
-0.698616903972 -0.688052429303 -0.196239290564
-0.547660329092 -0.823549615538 -0.147749851074
-0.4199790527 -0.906215842598 -0.0488974013664
-0.363040816962 -0.928578962028 0.0771162974716
-0.413120535348 -0.890935329976 0.188602596955
-0.547206323714 -0.80672279432 0.223085779935
-0.666140956357 -0.712152354722 0.221578907588
-0.862416828411 -0.505921922893 -0.0167445374213
-0.917297017015 -0.396256691465 -0.0393295116094
-0.907503045111 -0.419759305656 -0.0155033781655
-0.866298790641 -0.499331257019 -0.0139521657203
-0.816536939106 -0.576501405755 -0.0302245034544
-0.765008170233 -0.641777192186 -0.0537077547983
-0.722890719676 -0.685757950525 -0.0846465640038
-0.70049652272 -0.703585719466 -0.119464463461
-0.701069725684 -0.696451316344 -0.153156141143
-0.72154430151 -0.668118184448 -0.181636765739
-0.75543954827 -0.623414213793 -0.20165767025
-0.795167126548 -0.568610752294 -0.210691889836
-0.833637462486 -0.511797272653 -0.207634680139
-0.865362664738 -0.462186290282 -0.193730010673
-0.886941263996 -0.428299052962 -0.172902055861
-0.896805704935 -0.415740579853 -0.151325025385
-0.894654833247 -0.425254816615 -0.136934217651
-0.88177399646 -0.450607094835 -0.13938341877
-0.863425427338 -0.47565287701 -0.168080105674
-0.850669714023 -0.475330210267 -0.22455146822
-0.856138635542 -0.421296246278 -0.299233494919
-0.883611457084 -0.288065546259 -0.369135257437
-0.915819418782 -0.0674227122342 -0.395917016191
-0.917888335388 0.205059596678 -0.339794889756
-0.875505158773 0.444154073689 -0.190414457615
-0.833887880176 0.551753548023 0.0163028262999
-0.879633710585 0.436966467682 0.188058937607
-0.999415109558 0.00101798673372 0.034091766011
-0.980229971731 -0.197600380067 -0.00106156846192
-0.956072139048 -0.288761353927 -0.0493928906646
-0.913581501179 -0.387594998132 -0.122819069972
-0.831450945075 -0.514807354954 -0.208923194377
-0.69685697246 -0.687930253401 -0.202814409388
-0.553262888253 -0.823311270379 -0.126692841068
-0.460129435409 -0.887841286493 0.00372499072625
-0.4866028124 -0.860838080667 0.1489056677
-0.681746500442 -0.705034196899 0.195302733491
-0.911302306625 -0.410886213283 -0.0261797174393
-0.967187613567 -0.254039129147 -0.000442690852345
-0.981863833619 -0.187924179539 0.0249630100437
-0.975962717725 -0.209820933645 0.0589148924432
-0.952369508413 -0.29593167738 0.0735983249119
-0.913908070164 -0.401975133342 0.0564624561998
-0.868931771857 -0.494603451138 0.0180266676357
-0.826873548171 -0.561667841718 -0.0284491696126
-0.797089387564 -0.599222306967 -0.0747070063598
-0.785480689659 -0.60811790052 -0.11494654597
-0.792482948755 -0.592299479648 -0.145437627092
-0.814062190324 -0.557097856141 -0.164148505319
-0.843854486826 -0.50887052338 -0.170177570586
-0.875164497563 -0.45526617787 -0.163767611756
-0.902477036499 -0.404939313308 -0.146831137414
-0.922272695224 -0.366308113649 -0.123415865595
-0.933051715147 -0.345651027916 -0.0996989789667
-0.934860413959 -0.345061365822 -0.0834784879863
-0.92900111092 -0.360596923064 -0.0832271999035
-0.918509842071 -0.380831243323 -0.106335452208
-0.908928557357 -0.386783857966 -0.155715810404
-0.907106541195 -0.355349519835 -0.225579391215
-0.916254149946 -0.265402120168 -0.300076317497
-0.929002934766 -0.10566363947 -0.354688086964
-0.925311915031 0.113943648764 -0.36172339266
-0.885053345642 0.353778397019 -0.302595904721
-0.813222380491 0.553916719372 -0.178600131648
-0.754425241536 0.656355821757 -0.0100510368906
-0.777695733693 0.608626763727 0.15755569862
-0.911820822139 0.360664808864 0.196265595414
-0.998659297919 -0.0356190503582 -0.0370059005559
-0.971333120998 -0.217355123007 -0.0959632296638
-0.92229897823 -0.352141309596 -0.159144205198
-0.825302524466 -0.520699468473 -0.218494325327
-0.689604793106 -0.697977685627 -0.193036521768
-0.562477249791 -0.82183126353 -0.0905568228758
-0.519660426207 -0.851992361719 0.0636244294534
-0.648587469121 -0.737533162174 0.188042192131
-0.930688213112 -0.363748214015 -0.0383626165516
-0.994327646321 -0.102366731769 -0.0281598253132
-0.998509515349 -0.0210676533045 0.050078074539
-0.993256797602 -0.0462890076992 0.106241816843
-0.982453466965 -0.130460784011 0.133276040352
-0.961771813305 -0.24180842853 0.128543148616
-0.931847957472 -0.350254373548 0.0947693515692
-0.899210679751 -0.435308629236 0.0438921953885
-0.871738055128 -0.489854196605 -0.0107528356842
-0.85546756648 -0.514405611981 -0.0596834699707
-0.852907473748 -0.512905918951 -0.0973466271377
-0.862802870199 -0.490797929309 -0.121196544465
-0.881207755919 -0.454289886929 -0.130742468081
-0.903068442116 -0.410304198398 -0.126956145091
-0.923683897908 -0.366361893066 -0.112191971459
-0.939693533742 -0.329863215443 -0.0903678588535
-0.949428770725 -0.306736286259 -0.0670663319175
-0.952746091434 -0.299737378997 -0.049319531292
-0.950728410043 -0.306762002644 -0.04486174133
-0.945605946471 -0.319628885251 -0.0605538097191
-0.940748819866 -0.324084717108 -0.0998035861572
-0.939857854309 -0.3020175411 -0.159539296452
-0.944420249267 -0.236295509877 -0.22855157949
-0.950121005637 -0.116950026753 -0.289130648264
-0.94528679642 0.0529604495262 -0.321929340014
-0.915299864517 0.254032941872 -0.312594515019
-0.853589289215 0.45344061288 -0.256539485797
-0.773188137527 0.614307505678 -0.157643886761
-0.710893399238 0.702938637705 -0.0235820013819
-0.721412172433 0.680747169826 0.1272468553
-0.850430054357 0.481723195058 0.211503307392
-0.997470180614 0.0490563832779 -0.0513460952346
-0.976369542296 -0.179736948758 -0.119877201947
-0.922380504191 -0.342209465625 -0.179138846857
-0.807119490172 -0.549360087159 -0.216233634849
-0.674501596856 -0.718623129804 -0.169171859053
-0.5748814816 -0.817106318288 -0.0428235961917
-0.593029205859 -0.795910014317 0.12175187345
-0.787261657506 -0.586458599862 0.19041203861
-0.984643039476 -0.171983642528 -0.0292221777653
-0.999350082326 0.0281241461702 0.021501415862
-0.993037230993 0.0575360706688 0.102650591091
-0.987965944268 -0.00363586522559 0.154589017354
-0.979561380505 -0.106703851638 0.170500733253
-0.963536408593 -0.21932034704 0.153282922624
-0.941763334563 -0.317296005792 0.111377822445
-0.920177790763 -0.387207096762 0.0578229516638
-0.904483307941 -0.426479579199 0.00501252168056
-0.897815936593 -0.438663861829 -0.038737256981
-0.900401407167 -0.429520799589 -0.0692040276706
-0.910179107282 -0.405367296859 -0.0851548650086
-0.923835020056 -0.372685209917 -0.0873761607916
-0.937882078402 -0.338038411571 -0.0781488719146
-0.949515324363 -0.307714073225 -0.0610959142886
-0.957083275114 -0.286872690063 -0.0411786830251
-0.960184313952 -0.278282549535 -0.0245953253167
-0.959565399483 -0.280890943987 -0.0182905389259
-0.956996333075 -0.288673911773 -0.0287298453503
-0.955013056322 -0.290479382332 -0.0597644504388
-0.956069495588 -0.271696712051 -0.11005453792
-0.960742712817 -0.218138247958 -0.171432663779
-0.96560381589 -0.121339145039 -0.229970414636
-0.962614283732 0.0169732910278 -0.270346466344
-0.941761516179 0.183871297485 -0.281569998085
-0.896440094266 0.358709494024 -0.260258838359
-0.828911714129 0.518934115093 -0.208887674425
-0.753687187907 0.644158336696 -0.13055444664
-0.698769258349 0.714919801424 -0.0253131012184
-0.706005498152 0.700738813095 0.102689382365
-0.823288819308 0.532488410497 0.196635619739
-0.993724507103 0.107146613781 -0.0321186673621
-0.977441907822 -0.167107216625 -0.129128785152
-0.913092189892 -0.360696155106 -0.190146179798
-0.773053751263 -0.599517150496 -0.207278030977
-0.651515546612 -0.746401982464 -0.135659963455
-0.597818277765 -0.801574758287 0.00880460376002
-0.705348434286 -0.692906402447 0.149477740086
-0.957681146636 -0.285701903463 -0.0344841730904
-0.999827954277 -0.00933286301404 -0.014802896063
-0.993785320295 0.0892793668858 0.0662325543366
-0.987648292397 0.0747005427668 0.137659734404
-0.983860898158 -0.00287218062271 0.178887751794
-0.976667990502 -0.107674195133 0.185804868386
-0.963778037097 -0.211586880116 0.162365177062
-0.948041222439 -0.295068708695 0.118963293642
-0.934373651963 -0.349609276619 0.0686968282815
-0.926368665463 -0.375944984697 0.0225053660721
-0.925101668818 -0.379495654643 -0.0130372566163
-0.929568684502 -0.366959136133 -0.0352570935407
-0.937588432811 -0.34493017833 -0.0441713328255
-0.946648172468 -0.319574742906 -0.041583940511
-0.954555303717 -0.296454508426 -0.0306414853684
-0.959854462103 -0.280059595641 -0.0156857009848
-0.962026012186 -0.272949245559 -0.00216143701562
-0.961544161393 -0.274625284868 0.00371380114885
-0.959850120425 -0.280482923742 -0.00413393193483
-0.959108225207 -0.28145612081 -0.0298977234541
-0.961395153946 -0.26514866619 -0.0735903868446
-0.96712933806 -0.218986294624 -0.129251056898
-0.973368059283 -0.134977932366 -0.185298538722
-0.973536148581 -0.0141101824081 -0.228097062629
-0.959760765908 0.132680184176 -0.247498700315
-0.926793510308 0.288374864775 -0.240614816719
-0.874959960287 0.43589600163 -0.210819325865
-0.811031358404 0.561831051053 -0.163046406308
-0.748166734626 0.656085572387 -0.099059473127
-0.706296593642 0.707752419422 -0.0156968943571
-0.712879023194 0.695546617395 0.0896036497057
-0.797541776856 0.572292808039 0.190824310079
-0.945770940521 0.279303277357 0.165859525155
-0.980543885305 -0.14686526224 -0.130243185667
-0.891663335029 -0.404738565725 -0.202785980651
-0.720692147176 -0.6654851173 -0.194243664224
-0.620857775393 -0.777220378263 -0.102267302681
-0.626978189443 -0.777485897085 0.0490324639997
-0.807379896309 -0.574009823784 0.136513753013
-0.989794012925 -0.134196510822 -0.0477296696804
-0.997501827928 0.0684929647196 0.0166471481931
-0.988876135663 0.108911868954 0.101217659247
-0.984475245719 0.0658734017487 0.162662486311
-0.980801782966 -0.0204188946074 0.19392440224
-0.973458366889 -0.121678427275 0.193834782372
-0.962235885306 -0.214558895306 0.16753016102
-0.95045696002 -0.284178393327 0.125992927688
-0.941844511276 -0.326026914419 0.0814580421206
-0.938265018189 -0.343221487654 0.0431022330856
-0.939482849501 -0.342234249694 0.0157389280387
-0.943965561026 -0.330043360516 0.000638836025227
-0.949748847272 -0.312996017493 -0.00325937113257
-0.955036084564 -0.296486022135 0.00145525627094
-0.958554188234 -0.284696865282 0.0110256361319
-0.959755349392 -0.280075530203 0.0206728975885
-0.958942228412 -0.282512010653 0.0248348542445
-0.95732947623 -0.28844783559 0.0178360743226
-0.956894522252 -0.29039695381 -0.00474222557036
-0.959693856446 -0.277571769218 -0.0440638215059
-0.96643361105 -0.238254590886 -0.0961292378883
-0.974787242376 -0.163959021145 -0.15135149878
-0.978910874663 -0.0540342978818 -0.197012159292
-0.971483982134 0.0822982312427 -0.222364228916
-0.947475474107 0.22898409442 -0.223285756649
-0.906806308109 0.369588530805 -0.202748740634
-0.854332665245 0.492170873487 -0.166988599797
-0.798495315399 0.589768972585 -0.120754892925
-0.75059566617 0.65761996003 -0.0644079920482
-0.725252129714 0.688459278825 0.00629324907878
-0.741259438664 0.66438631525 0.0955466976707
-0.818113626839 0.543526007277 0.187805506337
-0.947071577203 0.257619231947 0.191542248705
-0.966620739958 -0.208995787349 -0.148206721169
-0.847954450403 -0.485337237437 -0.213122078074
-0.652689288509 -0.734965726587 -0.183905293532
-0.583927976224 -0.807499108405 -0.0834882854485
-0.673179550168 -0.737773523333 0.0501358282034
-0.946779258374 -0.30397127867 -0.10583641894
-0.998538917953 0.0035347678796 -0.0538239559756
-0.992422853757 0.112037571818 0.050349124216
-0.985305983499 0.105704932812 0.13413383683
-0.981430234288 0.0409869194717 0.187379440971
-0.976333161109 -0.051455742765 0.210057827469
-0.967698680681 -0.148223999727 0.203932376106
-0.957014114208 -0.23062414093 0.175887488292
-0.947630665325 -0.288464289339 0.137056616654
-0.94206674108 -0.320690864668 0.0983243567981
-0.940851243245 -0.332131836552 0.0669881852385
-0.942944395622 -0.329725566839 0.0462269824544
-0.946648092121 -0.320239221223 0.0361142243202
-0.950308496045 -0.309365570866 0.0347377098198
-0.952704560389 -0.301400718014 0.0388796711117
-0.953248254067 -0.298919731382 0.0443256154968
-0.952120299611 -0.302228898812 0.0460936776137
-0.950371429612 -0.308672740824 0.0389266566425
-0.9498612218 -0.312133755667 0.0183351744679
-0.952737127098 -0.303276895148 -0.0177508563904
-0.96018990186 -0.271161116792 -0.0671342140706
-0.970751801552 -0.206580096038 -0.122333997625
-0.979351592935 -0.106542718353 -0.171811281864
-0.978694945214 0.0224734492761 -0.204086181863
-0.962923548168 0.165727441691 -0.212867753668
-0.930890397529 0.306150790041 -0.199285671292
-0.886509018701 0.430575082888 -0.16943122229
-0.836849469016 0.531848698202 -0.129693415675
-0.790434711062 0.606863291379 -0.0832541706505
-0.757014447637 0.652765566261 -0.0287864351962
-0.74862603352 0.661861227159 0.0387477938341
-0.780676798663 0.612835303916 0.122384393563
-0.866350783289 0.457524194091 0.200269063102
-0.97736412954 0.12991111525 0.166979032894
-0.928369868113 -0.329498579999 -0.171930075383
-0.780574690529 -0.58537317136 -0.21918364773
-0.570850668545 -0.8002302431 -0.18374096098
-0.52181380968 -0.848687362461 -0.0862503580397
-0.652120717154 -0.756926393465 0.0424159522983
-0.960348952104 -0.247446277667 -0.128442765445
-0.998718071239 0.0334942651745 -0.0379171432423
-0.990748123062 0.107785704333 0.0824527938213
-0.982695176828 0.0758834929914 0.168969409006
-0.976014260824 -0.00395382149805 0.217668864002
-0.967278751406 -0.100427587919 0.232992716138
-0.95619188355 -0.192066302152 0.220923892449
-0.945294152186 -0.264537636536 0.19088937206
-0.937428154807 -0.312215789256 0.154109679813
-0.933835009053 -0.337001108664 0.119926957232
-0.933958284101 -0.344861564162 0.0937680777145
-0.936251551979 -0.342717260772 0.0773170230952
-0.939025252419 -0.336727635224 0.069613787776
-0.940961453948 -0.331606600498 0.0680338639046
-0.941359208016 -0.330304637195 0.0688599200285
-0.940269990124 -0.3336479849 0.0676118852784
-0.938599797632 -0.339846550835 0.0594536817752
-0.93809767138 -0.344056037237 0.0399775030256
-0.940982037439 -0.338393961692 0.00650621188068
-0.948920753099 -0.312933707387 -0.0402727935588
-0.961420120222 -0.258155870056 -0.0950099845387
-0.974483823948 -0.168843052949 -0.147896241587
-0.981100100594 -0.0479982451736 -0.187453366006
-0.974329871205 0.0922871311739 -0.205339735882
-0.951180592075 0.235057241796 -0.200009042464